 Gaussian 09, Revision A.02,
 Gaussian 09:  EM64T-G09RevA.02 11-Jun-2009

 ----------------------------------------------------------------------
 #p opt=(modredundant,maxcycle=500) b3lyp/genecp nosymm scf=(qc,conver=
 6,novaracc) geom=connectivity int=ultrafine
 ----------------------------------------------------------------------

 ------------
 heme_2his_oo
 ------------
 Symbolic Z-matrix:
 Charge =  0 Multiplicity = 1

 SCF Done:  E(RB3LYP) =  -3852.09589433     a.u. after   20 cycles
 SCF Done:  E(RB3LYP) =  -3852.09571578     a.u. after    5 cycles
 SCF Done:  E(RB3LYP) =  -3852.09600962     a.u. after    3 cycles
 SCF Done:  E(RB3LYP) =  -3852.09636699     a.u. after    4 cycles
 SCF Done:  E(RB3LYP) =  -3852.09609880     a.u. after    3 cycles
 SCF Done:  E(RB3LYP) =  -3852.09653182     a.u. after    3 cycles
 SCF Done:  E(RB3LYP) =  -3852.09640404     a.u. after    3 cycles
 SCF Done:  E(RB3LYP) =  -3852.09655179     a.u. after    3 cycles
 SCF Done:  E(RB3LYP) =  -3852.09653536     a.u. after    3 cycles
 SCF Done:  E(RB3LYP) =  -3852.09655775     a.u. after    3 cycles
 SCF Done:  E(RB3LYP) =  -3852.09656122     a.u. after    2 cycles
 SCF Done:  E(RB3LYP) =  -3852.09656149     a.u. after    2 cycles
 SCF Done:  E(RB3LYP) =  -3852.09656172     a.u. after    2 cycles
 SCF Done:  E(RB3LYP) =  -3852.09656194     a.u. after    2 cycles
 SCF Done:  E(RB3LYP) =  -3852.09656238     a.u. after    2 cycles
 SCF Done:  E(RB3LYP) =  -3852.09656257     a.u. after    2 cycles
 SCF Done:  E(RB3LYP) =  -3852.09656267     a.u. after    2 cycles
 SCF Done:  E(RB3LYP) =  -3852.09656280     a.u. after    2 cycles
 SCF Done:  E(RB3LYP) =  -3852.09656282     a.u. after    2 cycles
 SCF Done:  E(RB3LYP) =  -3852.09656293     a.u. after    2 cycles
 Optimization completed.
    -- Stationary point found.

                         Z-Matrix orientation:
 ---------------------------------------------------------------------
 Center     Atomic      Atomic             Coordinates (Angstroms)
 Number     Number       Type             X           Y           Z
 ---------------------------------------------------------------------
      1          6           0        2.351449   -2.604712    0.100582
      2          6           0        2.372709    2.177710    0.690671
      3          6           0       -2.438618    2.231059    0.365860
      4          6           0       -2.460266   -2.545129   -0.242002
      5          6           0        2.781543   -1.297913    0.305885
      6          6           0        4.177614   -0.904643    0.416259
      7          6           0        4.180670    0.453294    0.591166
      8          6           0        2.789781    0.864517    0.566045
      9          6           0        5.351026    1.376175    0.757996
     10          6           0        5.350258   -1.817487    0.207967
     11          6           0        5.622074   -2.025817   -1.291637
     12          6           0        6.754313   -2.981670   -1.568513
     13          8           0        7.000585   -3.095303   -2.898438
     14          8           0        7.389029   -3.596128   -0.738118
     15          6           0        1.051886    2.598723    0.646066
     16          6           0        0.663352    3.984919    0.801250
     17          6           0       -0.702059    4.017371    0.678593
     18          6           0       -1.117589    2.627562    0.489580
     19          6           0        1.608458    5.129981    1.006184
     20          6           0       -1.538473    5.216412    0.727268
     21          6           0       -2.632554    5.486107   -0.000873
     22          6           0       -2.866513    0.929055    0.156792
     23          6           0       -4.259840    0.557601    0.012803
     24          6           0       -4.272803   -0.807054   -0.163672
     25          6           0       -2.877851   -1.229678   -0.103148
     26          6           0       -5.424131    1.495854    0.102308
     27          6           0       -5.403087   -1.713966   -0.327427
     28          6           0       -6.594370   -1.433697   -0.880074
     29          6           0       -1.143845   -2.968339   -0.183992
     30          6           0       -0.751916   -4.363795   -0.300730
     31          6           0        0.608696   -4.382441   -0.195870
     32          6           0        1.024457   -2.997057   -0.027582
     33          6           0       -1.697842   -5.514416   -0.471545
     34          6           0        1.528678   -5.563198   -0.114739
     35          6           0        1.900293   -5.867406    1.347020
     36          6           0        2.940301   -6.947208    1.485418
     37          8           0        3.450888   -6.997994    2.746783
     38          8           0        3.306712   -7.705537    0.614706
     39          7           0        1.951158   -0.208561    0.375422
     40          7           0       -0.037795    1.780170    0.467483
     41          7           0       -2.037546   -0.165860    0.086486
     42          7           0       -0.053441   -2.150825   -0.005483
     43         26           0       -0.040624   -0.181179    0.196359
     44          1           0        3.110159   -3.377868    0.036717
     45          1           0        3.134275    2.935270    0.839643
     46          1           0       -3.193829    3.001035    0.446075
     47          1           0       -3.218992   -3.300941   -0.407988
     48          1           0        6.293755    0.823570    0.802774
     49          1           0        5.429559    2.092366   -0.069562
     50          1           0        5.271650    1.964813    1.679712
     51          1           0        5.190149   -2.796065    0.674000
     52          1           0        6.250106   -1.409508    0.679232
     53          1           0        4.726536   -2.409005   -1.795720
     54          1           0        5.849164   -1.072151   -1.782534
     55          1           0        2.243783    4.978264    1.887109
     56          1           0        2.278013    5.262957    0.146868
     57          1           0        1.069873    6.071000    1.142693
     58          1           0       -1.196828    5.987957    1.418410
     59          1           0       -3.013926    4.803740   -0.753424
     60          1           0       -3.166074    6.423563    0.123894
     61          1           0       -6.317358    0.967027    0.447850
     62          1           0       -5.671126    1.947916   -0.867844
     63          1           0       -5.227816    2.316322    0.799168
     64          1           0       -5.251842   -2.726649    0.045967
     65          1           0       -6.822147   -0.467110   -1.316776
     66          1           0       -7.376165   -2.185597   -0.927840
     67          1           0       -1.160087   -6.458778   -0.594039
     68          1           0       -2.337980   -5.385735   -1.352655
     69          1           0       -2.365035   -5.625101    0.392347
     70          1           0        2.448094   -5.390656   -0.685918
     71          1           0        1.068895   -6.451307   -0.557893
     72          1           0        2.262707   -4.967989    1.854629
     73          1           0        1.012226   -6.179764    1.911283
     74          1           0        7.731037   -3.731265   -2.981754
     75          1           0        4.088147   -7.732333    2.741000
     76          7           0        4.459659   -2.018124    9.074929
     77          6           0        3.850752   -1.637771    7.787604
     78          6           0        3.376673   -0.167120    7.854946
     79          8           0        2.333767    0.247037    7.417732
     80          6           0        2.701833   -2.544176    7.248776
     81          6           0        2.262046   -2.253358    5.839452
     82          7           0        2.928245   -2.735329    4.715383
     83          6           0        1.247942   -1.476076    5.331491
     84          6           0        2.321065   -2.246034    3.601629
     85          7           0        1.298562   -1.495291    3.963285
     86          7           0        0.895341   -1.621968   -6.487335
     87          6           0       -0.485712   -1.668762   -6.070995
     88          6           0       -1.432679   -1.930973   -7.230347
     89          8           0       -2.624329   -1.758719   -7.180122
     90          6           0       -0.931161   -0.386427   -5.324120
     91          6           0       -0.315579   -0.243807   -3.972287
     92          7           0        1.052307   -0.232612   -3.775117
     93          6           0       -0.858097   -0.113394   -2.718128
     94          6           0        1.286118   -0.118170   -2.444430
     95          7           0        0.147096   -0.044198   -1.769957
     96          8           0       -0.403966   -0.388156    2.254305
     97          8           0        0.479050   -0.122814    3.135814
     98          1           0        1.834558   -2.443135    7.908764
     99          1           0        3.037388   -3.586390    7.327655
    100          1           0        0.519422   -0.879853    5.856221
    101          1           0        3.710881   -3.374076    4.714067
    102          1           0        2.633270   -2.436163    2.585388
    103          1           0        4.666355   -1.638749    7.051403
    104          1           0        3.750661   -2.144373    9.792950
    105          1           0        4.976398   -2.887393    8.985833
    106          1           0       -2.017666   -0.415837   -5.221001
    107          1           0       -0.697950    0.479207   -5.961334
    108          1           0       -1.896471   -0.075470   -2.433663
    109          1           0        1.720377   -0.440900   -4.505653
    110          1           0        2.270366   -0.107192   -2.009845
    111          1           0       -0.609807   -2.518599   -5.387031
    112          1           0        1.275652   -2.534033   -6.713556
    113          1           0        1.043225   -0.998595   -7.275098
    114         16           0       -0.623675   -2.572883   -8.750327
    115          1           0       -1.802437   -2.729875   -9.382346
    116         16           0        4.567909    0.896610    8.728151
    117          1           0        3.904687    2.020625    8.385624
 ---------------------------------------------------------------------

 Alpha  occ. eigenvalues --  -88.88478 -88.87649 -19.21736 -19.19438 -19.19232
 Alpha  occ. eigenvalues --  -19.16762 -19.16623 -19.16608 -19.13836 -19.13771
 Alpha  occ. eigenvalues --  -14.41533 -14.38159 -14.36661 -14.35245 -14.35100
 Alpha  occ. eigenvalues --  -14.33214 -14.29940 -14.29798 -14.29742 -14.29650
 Alpha  occ. eigenvalues --  -10.31813 -10.31774 -10.31257 -10.31089 -10.26136
 Alpha  occ. eigenvalues --  -10.25887 -10.25137 -10.24012 -10.23312 -10.22556
 Alpha  occ. eigenvalues --  -10.21451 -10.21285 -10.20809 -10.19820 -10.19705
 Alpha  occ. eigenvalues --  -10.18893 -10.18707 -10.18692 -10.18530 -10.18288
 Alpha  occ. eigenvalues --  -10.18197 -10.18139 -10.18097 -10.18047 -10.17958
 Alpha  occ. eigenvalues --  -10.17861 -10.17478 -10.17286 -10.17167 -10.17076
 Alpha  occ. eigenvalues --  -10.16776 -10.16636 -10.16583 -10.16362 -10.16327
 Alpha  occ. eigenvalues --  -10.16144 -10.16107 -10.16102 -10.16034 -10.15987
 Alpha  occ. eigenvalues --  -10.15963 -10.15821 -10.15769 -10.15721 -10.15645
 Alpha  occ. eigenvalues --  -10.15344  -7.96308  -7.95433  -5.92671  -5.92284
 Alpha  occ. eigenvalues --   -5.91816  -5.91806  -5.91413  -5.90927  -3.40799
 Alpha  occ. eigenvalues --   -2.18784  -2.18208  -2.18059  -1.13507  -1.10597
 Alpha  occ. eigenvalues --   -1.10516  -1.07462  -1.07461  -1.04346  -1.01540
 Alpha  occ. eigenvalues --   -1.01451  -1.01416  -0.93236  -0.93157  -0.92328
 Alpha  occ. eigenvalues --   -0.92271  -0.92042  -0.91150  -0.90448  -0.87313
 Alpha  occ. eigenvalues --   -0.80870  -0.80720  -0.80447  -0.79375  -0.78966
 Alpha  occ. eigenvalues --   -0.78377  -0.78130  -0.77517  -0.77506  -0.76975
 Alpha  occ. eigenvalues --   -0.76633  -0.75776  -0.75376  -0.74472  -0.73771
 Alpha  occ. eigenvalues --   -0.73481  -0.73066  -0.72611  -0.70997  -0.70615
 Alpha  occ. eigenvalues --   -0.69771  -0.67920  -0.67889  -0.67294  -0.66609
 Alpha  occ. eigenvalues --   -0.65910  -0.65637  -0.65144  -0.63778  -0.61701
 Alpha  occ. eigenvalues --   -0.61526  -0.61333  -0.61089  -0.58867  -0.58720
 Alpha  occ. eigenvalues --   -0.58678  -0.57788  -0.57468  -0.56968  -0.56942
 Alpha  occ. eigenvalues --   -0.56015  -0.54996  -0.54655  -0.53828  -0.52685
 Alpha  occ. eigenvalues --   -0.52630  -0.51746  -0.51569  -0.51235  -0.50444
 Alpha  occ. eigenvalues --   -0.49850  -0.49570  -0.49340  -0.49071  -0.48744
 Alpha  occ. eigenvalues --   -0.48520  -0.48435  -0.48173  -0.47936  -0.47633
 Alpha  occ. eigenvalues --   -0.47403  -0.47359  -0.47096  -0.47015  -0.46533
 Alpha  occ. eigenvalues --   -0.45743  -0.45721  -0.45574  -0.45547  -0.44934
 Alpha  occ. eigenvalues --   -0.44776  -0.44390  -0.43873  -0.43631  -0.43575
 Alpha  occ. eigenvalues --   -0.43266  -0.42806  -0.42468  -0.42191  -0.42064
 Alpha  occ. eigenvalues --   -0.41803  -0.41779  -0.41635  -0.41604  -0.41425
 Alpha  occ. eigenvalues --   -0.41102  -0.40835  -0.40761  -0.40685  -0.40612
 Alpha  occ. eigenvalues --   -0.40273  -0.40172  -0.40114  -0.40000  -0.39768
 Alpha  occ. eigenvalues --   -0.39542  -0.39240  -0.39114  -0.38963  -0.38920
 Alpha  occ. eigenvalues --   -0.38610  -0.38508  -0.38352  -0.38092  -0.37938
 Alpha  occ. eigenvalues --   -0.37694  -0.37509  -0.37467  -0.36995  -0.36600
 Alpha  occ. eigenvalues --   -0.36424  -0.36241  -0.35929  -0.35764  -0.35699
 Alpha  occ. eigenvalues --   -0.35226  -0.34755  -0.34659  -0.34299  -0.33867
 Alpha  occ. eigenvalues --   -0.33728  -0.33331  -0.32520  -0.32285  -0.32098
 Alpha  occ. eigenvalues --   -0.31964  -0.31634  -0.31468  -0.31149  -0.30605
 Alpha  occ. eigenvalues --   -0.29470  -0.29340  -0.29027  -0.28975  -0.28098
 Alpha  occ. eigenvalues --   -0.27811  -0.27768  -0.27696  -0.27557  -0.27515
 Alpha  occ. eigenvalues --   -0.26950  -0.26834  -0.26745  -0.25784  -0.25398
 Alpha  occ. eigenvalues --   -0.24367  -0.24213  -0.23748  -0.22497  -0.22262
 Alpha  occ. eigenvalues --   -0.21374  -0.20329  -0.19901  -0.18548  -0.17819
 Alpha  occ. eigenvalues --   -0.16356  -0.15936  -0.15866  -0.15792
 Alpha virt. eigenvalues --   -0.06164  -0.05001  -0.04835  -0.03832  -0.03689
 Alpha virt. eigenvalues --   -0.00776   0.00057   0.00541   0.00803   0.00924
 Alpha virt. eigenvalues --    0.01903   0.02283   0.02506   0.03636   0.03894

 Mulliken atomic charges:
              1
     1  C   -0.272416
     2  C   -0.218040
     3  C   -0.210167
     4  C   -0.215971
     5  C    0.242356
     6  C   -0.003594
     7  C    0.038863
     8  C    0.267598
     9  C   -0.379438
    10  C   -0.228885
    11  C   -0.253663
    12  C    0.529489
    13  O   -0.482129
    14  O   -0.432142
    15  C    0.278316
    16  C    0.036394
    17  C    0.023112
    18  C    0.277812
    19  C   -0.374092
    20  C   -0.091988
    21  C   -0.247723
    22  C    0.272078
    23  C    0.035726
    24  C    0.023677
    25  C    0.269601
    26  C   -0.382404
    27  C   -0.079466
    28  C   -0.252863
    29  C    0.274060
    30  C    0.041207
    31  C    0.008777
    32  C    0.284319
    33  C   -0.380495
    34  C   -0.236915
    35  C   -0.247596
    36  C    0.527372
    37  O   -0.492588
    38  O   -0.426443
    39  N   -0.543738
    40  N   -0.537753
    41  N   -0.546966
    42  N   -0.526620
    43  Fe   0.459228
    44  H    0.062163
    45  H    0.067305
    46  H    0.077152
    47  H    0.069504
    48  H    0.100917
    49  H    0.115123
    50  H    0.120731
    51  H    0.102980
    52  H    0.108680
    53  H    0.141872
    54  H    0.135711
    55  H    0.115149
    56  H    0.115512
    57  H    0.104519
    58  H    0.084409
    59  H    0.100716
    60  H    0.088386
    61  H    0.117311
    62  H    0.112330
    63  H    0.114850
    64  H    0.083920
    65  H    0.094301
    66  H    0.087929
    67  H    0.101699
    68  H    0.117031
    69  H    0.118735
    70  H    0.111249
    71  H    0.113022
    72  H    0.120857
    73  H    0.144744
    74  H    0.320956
    75  H    0.319811
    76  N   -0.566601
    77  C   -0.019120
    78  C    0.230218
    79  O   -0.360559
    80  C   -0.242572
    81  C    0.237138
    82  N   -0.507285
    83  C    0.058089
    84  C    0.300509
    85  N   -0.288598
    86  N   -0.600012
    87  C   -0.019967
    88  C    0.223175
    89  O   -0.366076
    90  C   -0.231119
    91  C    0.237584
    92  N   -0.491680
    93  C    0.020389
    94  C    0.282850
    95  N   -0.385760
    96  O   -0.155377
    97  O   -0.059847
    98  H    0.134296
    99  H    0.102520
   100  H    0.141244
   101  H    0.278629
   102  H    0.152703
   103  H    0.136009
   104  H    0.254765
   105  H    0.253208
   106  H    0.153356
   107  H    0.115022
   108  H    0.128212
   109  H    0.278012
   110  H    0.141024
   111  H    0.164230
   112  H    0.271549
   113  H    0.261849
   114  S   -0.058915
   115  H    0.093142
   116  S    0.011943
   117  H    0.076363
 Sum of Mulliken atomic charges =   0.00000

 Dipole moment (field-independent basis, Debye):
    X=              6.4517    Y=             -4.1658    Z=              0.5967  Tot=              7.7029
 Quadrupole moment (field-independent basis, Debye-Ang):
   XX=           -393.5610   YY=           -387.6062   ZZ=           -328.0910
   XY=            -11.4193   XZ=             10.8887   YZ=            -32.9290

 Normal termination of Gaussian 09 at Sun Nov 29 10:03:49 2015.
